                               Psi4 1.3.2 release

  ==> Input File <==

--------------------------------------------------------------------------
molecule li2 {
Li
Li 1 1.20
}

set {
  basis 3-21g
  print_MOs true
  qc_module detci
  opdm True
  tpdm True
}

E,wfn = energy('cisd',return_wfn=True)
opdm = wfn.get_opdm(-1,-1,"SUM",False)
opdm_prt = opdm.print_out()
tpdm = wfn.get_tpdm("SUM",False)
tpdm_prt = tpdm.print_out()
fchk_writer = psi4.core.FCHKWriter(wfn)
fchk_writer.write('li2.fchk')
--------------------------------------------------------------------------

    Molecular point group: d2h

    Geometry (in Angstrom), charge = 0, multiplicity = 1:

       Center              X                  Y                   Z               Mass
    ------------   -----------------  -----------------  -----------------  -----------------
         LI           0.000000000000     0.000000000000    -0.600000000000     7.016003436600
         LI           0.000000000000     0.000000000000     0.600000000000     7.016003436600

  Charge       = 0
  Multiplicity = 1
  Basis Set: 3-21G
    Blend: 3-21G

    Orbital Energies [Eh]
    ---------------------

    Doubly Occupied:

       1Ag    -2.660528     1B1u   -2.525892     2Ag    -0.208306

  @RHF Final Energy:   -14.57779339029219
    Total Energy =                        -14.5777933902921877

  Dipole Moment: [D]
     X:     0.0000      Y:     0.0000      Z:     0.0000     Total:     0.0000

   ==> Energetics <==

    SCF energy =          -14.577793390292188
    Total CI energy =     -14.627928944174508

   ==> CISD root 0 information <==

    CISD Root 0 energy =   -14.627928944174508

   The 20 most important determinants:

    *   1    0.893951  (  201,  201)  1AgX 2AgX 1B1uX
    *   2   -0.256453  (  131,  131)  1AgX 1B1uX 1B2uX
    *   3   -0.256453  (   83,   83)  1AgX 1B1uX 1B3uX
    *   4   -0.102019  (    3,    3)  1AgX 1B1uX 2B1uX
    *   5   -0.098978  (  131,  133)  1AgX 1B1uX 1B2uA 2B2uB
    *   6   -0.098978  (  133,  131)  1AgX 1B1uX 1B2uB 2B2uA
    *   7   -0.098978  (   83,   85)  1AgX 1B1uX 1B3uA 2B3uB
    *   8   -0.098978  (   85,   83)  1AgX 1B1uX 1B3uB 2B3uA
    *   9   -0.052083  (    3,    5)  1AgX 1B1uX 2B1uA 3B1uB
    *  10   -0.052083  (    5,    3)  1AgX 1B1uX 2B1uB 3B1uA
    *  11   -0.041618  (    3,    7)  1AgX 1B1uX 2B1uA 4B1uB
    *  12   -0.041618  (    7,    3)  1AgX 1B1uX 2B1uB 4B1uA
    *  13   -0.035387  (  133,  133)  1AgX 1B1uX 2B2uX
    *  14   -0.035387  (   85,   85)  1AgX 1B1uX 2B3uX
    *  15   -0.032865  (  201,  202)  1AgX 2AgA 1B1uX 3AgB
    *  16   -0.032865  (  202,  201)  1AgX 2AgB 1B1uX 3AgA
    *  17   -0.027264  (    5,    5)  1AgX 1B1uX 3B1uX
    *  18   -0.027134  (  201,  204)  1AgX 2AgA 1B1uX 4AgB
    *  19   -0.027134  (  204,  201)  1AgX 2AgB 1B1uX 4AgA
    *  20   -0.024019  (  204,  204)  1AgX 1B1uX 4AgX

*** Psi4 exiting successfully. Buy a developer a beer!
